SPECGRID
 2 3 4 /
COORD
1000 2000 1000
1100 2000 1100
1040 2000 1000
1150 2000 1100
1120 2000 1000
1200 2000 1100
1000 2200 1000
1100 2200 1100
1100 2200 1000
1200 2200 1100
1200 2200 1000
1300 2200 1100
1000 2600 1000
1100 2600 1100
1150 2600 1000
1250 2600 1100
1300 2600 1000
1400 2600 1100
1000 3200 1000
1100 3200 1100
1200 3200 1000
1300 3200 1100
1400 3200 1000
1500 3200 1100 /
ZCORN
24*1000
24*1100

24*1100
24*1200

24*1200
24*1300

24*1300
24*1400
/
LITHOLOGYTYPE
1 2 3 4 5 6 1 2 3 4 5 6 1 2 3 4 5 6 1 2 3 4 5 6 /